Program Version,EnergyPlus, Version 24.1.0-9d7789a3ac, YMD=2025.04.01 09:51
1,5,Environment Title[],Latitude[deg],Longitude[deg],Time Zone[],Elevation[m]
2,8,Day of Simulation[],Month[],Day of Month[],DST Indicator[1=yes 0=no],Hour[],StartMinute[],EndMinute[],DayType
3,5,Cumulative Day of Simulation[],Month[],Day of Month[],DST Indicator[1=yes 0=no],DayType  ! When Daily Meters Requested
4,2,Cumulative Days of Simulation[],Month[]  ! When Monthly Meters Requested
5,1,Cumulative Days of Simulation[] ! When Run Period Meters Requested
6,1,Calendar Year of Simulation[] ! When Annual Meters Requested
1164,1,Electricity:HVAC [J] !TimeStep
1237,1,Heating:Electricity [J] !TimeStep
1297,1,Cooling:Electricity [J] !TimeStep
62,1,InteriorLights:Electricity [J] !TimeStep
15,1,Electricity:Facility [J] !Hourly
End of Data Dictionary
1,GUANGZHOU ANN CLG .4% CONDNS DB=>MWB,  30.44, 122.93,   8.00,  60.00
2,1, 7,21, 0, 1, 0.00,60.00,SummerDesignDay
62,35736227.99999992
1164,29464121.06978996
1237,0.0
1297,24606901.182496082
2,1, 7,21, 0, 1, 0.00,60.00,SummerDesignDay
15,90829361.06978986
2,1, 7,21, 0, 2, 0.00,60.00,SummerDesignDay
62,35736227.99999992
1164,29206839.325615417
1237,0.0
1297,24349619.43832153
2,1, 7,21, 0, 2, 0.00,60.00,SummerDesignDay
15,90572079.32561532
2,1, 7,21, 0, 3, 0.00,60.00,SummerDesignDay
62,35736227.99999992
1164,29013700.282134287
1237,0.0
1297,24156480.394840404
2,1, 7,21, 0, 3, 0.00,60.00,SummerDesignDay
15,90378940.28213418
2,1, 7,21, 0, 4, 0.00,60.00,SummerDesignDay
62,35736227.99999992
1164,28820685.974532127
1237,0.0
1297,23963466.087238245
2,1, 7,21, 0, 4, 0.00,60.00,SummerDesignDay
15,90185925.97453204
2,1, 7,21, 0, 5, 0.00,60.00,SummerDesignDay
62,35736227.99999992
1164,28694106.597411335
1237,0.0
1297,23836886.71011746
2,1, 7,21, 0, 5, 0.00,60.00,SummerDesignDay
15,90059346.59741125
2,1, 7,21, 0, 6, 0.00,60.00,SummerDesignDay
62,35736227.99999992
1164,28820675.424585078
1237,0.0
1297,23963455.53729119
2,1, 7,21, 0, 6, 0.00,60.00,SummerDesignDay
15,90185915.42458498
2,1, 7,21, 0, 7, 0.00,60.00,SummerDesignDay
62,35736227.99999992
1164,39356526.53948854
1237,0.0
1297,38025745.828904934
2,1, 7,21, 0, 7, 0.00,60.00,SummerDesignDay
15,100721766.53948846
2,1, 7,21, 0, 8, 0.00,60.00,SummerDesignDay
62,35736227.99999992
1164,42998509.878632076
1237,0.0
1297,41496584.24675218
2,1, 7,21, 0, 8, 0.00,60.00,SummerDesignDay
15,104363749.878632
2,1, 7,21, 0, 9, 0.00,60.00,SummerDesignDay
62,35736227.99999992
1164,49062228.57417407
1237,0.0
1297,47076049.348413825
2,1, 7,21, 0, 9, 0.00,60.00,SummerDesignDay
15,110427468.57417397
2,1, 7,21, 0,10, 0.00,60.00,SummerDesignDay
62,35736227.99999992
1164,52215657.52482265
1237,0.0
1297,50040292.6616739
2,1, 7,21, 0,10, 0.00,60.00,SummerDesignDay
15,113580897.52482256
2,1, 7,21, 0,11, 0.00,60.00,SummerDesignDay
62,35736227.99999992
1164,53998560.610985726
1237,0.0
1297,51781754.02235943
2,1, 7,21, 0,11, 0.00,60.00,SummerDesignDay
15,115363800.61098564
2,1, 7,21, 0,12, 0.00,60.00,SummerDesignDay
62,35736227.99999992
1164,54371482.06869942
1237,0.0
1297,52247818.41450077
2,1, 7,21, 0,12, 0.00,60.00,SummerDesignDay
15,115736722.0686993
2,1, 7,21, 0,13, 0.00,60.00,SummerDesignDay
62,35736227.99999992
1164,56408397.694900855
1237,0.0
1297,54148585.35517267
2,1, 7,21, 0,13, 0.00,60.00,SummerDesignDay
15,117773637.69490075
2,1, 7,21, 0,14, 0.00,60.00,SummerDesignDay
62,35736227.99999992
1164,59961968.70562175
1237,0.0
1297,57308185.79281434
2,1, 7,21, 0,14, 0.00,60.00,SummerDesignDay
15,121327208.70562166
2,1, 7,21, 0,15, 0.00,60.00,SummerDesignDay
62,35736227.99999992
1164,65961334.93535479
1237,0.0
1297,62329216.03534789
2,1, 7,21, 0,15, 0.00,60.00,SummerDesignDay
15,127326574.93535471
2,1, 7,21, 0,16, 0.00,60.00,SummerDesignDay
62,35736227.99999992
1164,68543262.4296813
1237,0.0
1297,64268898.392465666
2,1, 7,21, 0,16, 0.00,60.00,SummerDesignDay
15,129908502.42968124
2,1, 7,21, 0,17, 0.00,60.00,SummerDesignDay
62,35736227.99999992
1164,64683097.975959465
1237,0.0
1297,60935682.34815663
2,1, 7,21, 0,17, 0.00,60.00,SummerDesignDay
15,126048337.97595938
2,1, 7,21, 0,18, 0.00,60.00,SummerDesignDay
62,35736227.99999992
1164,54629547.71038155
1237,0.0
1297,52281826.356577605
2,1, 7,21, 0,18, 0.00,60.00,SummerDesignDay
15,115994787.71038146
2,1, 7,21, 0,19, 0.00,60.00,SummerDesignDay
62,35736227.99999992
1164,47314355.91880554
1237,0.0
1297,45635858.8264605
2,1, 7,21, 0,19, 0.00,60.00,SummerDesignDay
15,108679595.91880547
2,1, 7,21, 0,20, 0.00,60.00,SummerDesignDay
62,35736227.99999992
1164,32489615.759344704
1237,0.0
1297,31838519.96351792
2,1, 7,21, 0,20, 0.00,60.00,SummerDesignDay
15,93854855.75934462
2,1, 7,21, 0,21, 0.00,60.00,SummerDesignDay
62,35736227.99999992
1164,28686646.79471679
1237,0.0
1297,28147136.600430183
2,1, 7,21, 0,21, 0.00,60.00,SummerDesignDay
15,90051886.7947167
2,1, 7,21, 0,22, 0.00,60.00,SummerDesignDay
62,35736227.99999992
1164,28758470.67049292
1237,0.0
1297,26250854.44192215
2,1, 7,21, 0,22, 0.00,60.00,SummerDesignDay
15,90123710.67049283
2,1, 7,21, 0,23, 0.00,60.00,SummerDesignDay
62,35736227.99999992
1164,30313279.93090111
1237,0.0
1297,25456060.043607228
2,1, 7,21, 0,23, 0.00,60.00,SummerDesignDay
15,91678519.93090102
2,1, 7,21, 0,24, 0.00,60.00,SummerDesignDay
62,35736227.99999992
1164,29849741.46675259
1237,0.0
1297,24992521.579458706
2,1, 7,21, 0,24, 0.00,60.00,SummerDesignDay
15,91214981.46675251
1,RUN PERIOD 1,  30.44, 122.93,   8.00,  60.00
2,1, 1, 1, 0, 1, 0.00,60.00,Sunday
62,1786811.399999996
1164,17121201.566321652
1237,12263981.679027768
1297,0.0
2,1, 1, 1, 0, 1, 0.00,60.00,Sunday
15,26596716.56632164
2,1, 1, 1, 0, 2, 0.00,60.00,Sunday
62,1786811.399999996
1164,16873882.405707408
1237,12016662.518413525
1297,0.0
2,1, 1, 1, 0, 2, 0.00,60.00,Sunday
15,26349397.4057074
2,1, 1, 1, 0, 3, 0.00,60.00,Sunday
62,1786811.399999996
1164,16688945.559938299
1237,11831725.672644416
1297,0.0
2,1, 1, 1, 0, 3, 0.00,60.00,Sunday
15,26164460.559938293
2,1, 1, 1, 0, 4, 0.00,60.00,Sunday
62,1786811.399999996
1164,16208490.474570397
1237,11351270.58727651
1297,0.0
2,1, 1, 1, 0, 4, 0.00,60.00,Sunday
15,25684005.474570386
2,1, 1, 1, 0, 5, 0.00,60.00,Sunday
62,1786811.399999996
1164,15729017.36460483
1237,10871797.477310948
1297,0.0
2,1, 1, 1, 0, 5, 0.00,60.00,Sunday
15,25204532.364604823
2,1, 1, 1, 0, 6, 0.00,60.00,Sunday
62,1786811.399999996
1164,14980570.700721908
1237,10123350.813428022
1297,0.0
2,1, 1, 1, 0, 6, 0.00,60.00,Sunday
15,24456085.700721893
2,1, 1, 1, 0, 7, 0.00,60.00,Sunday
62,1786811.399999996
1164,16493027.674439752
1237,11635807.787145868
1297,0.0
2,1, 1, 1, 0, 7, 0.00,60.00,Sunday
15,25968542.67443974
2,1, 1, 1, 0, 8, 0.00,60.00,Sunday
62,1786811.399999996
1164,15637924.986170068
1237,10780705.098876186
1297,0.0
2,1, 1, 1, 0, 8, 0.00,60.00,Sunday
15,25113439.98617006
2,1, 1, 1, 0, 9, 0.00,60.00,Sunday
62,1786811.399999996
1164,11134705.469847262
1237,6277485.58255338
1297,0.0
2,1, 1, 1, 0, 9, 0.00,60.00,Sunday
15,20610220.469847254
2,1, 1, 1, 0,10, 0.00,60.00,Sunday
62,1786811.399999996
1164,6956649.359828417
1237,2099429.4725345345
1297,0.0
2,1, 1, 1, 0,10, 0.00,60.00,Sunday
15,16432164.35982841
2,1, 1, 1, 0,11, 0.00,60.00,Sunday
62,1786811.399999996
1164,5268712.315766634
1237,411492.4284727514
1297,0.0
2,1, 1, 1, 0,11, 0.00,60.00,Sunday
15,14744227.315766625
2,1, 1, 1, 0,12, 0.00,60.00,Sunday
62,1786811.399999996
1164,1512735.889335508
1237,0.0
1297,0.0
2,1, 1, 1, 0,12, 0.00,60.00,Sunday
15,10988250.8893355
2,1, 1, 1, 0,13, 0.00,60.00,Sunday
62,1786811.399999996
1164,497808.17337678693
1237,0.0
1297,0.0
2,1, 1, 1, 0,13, 0.00,60.00,Sunday
15,9973323.173376778
2,1, 1, 1, 0,14, 0.00,60.00,Sunday
62,1786811.399999996
1164,497808.17337678693
1237,0.0
1297,0.0
2,1, 1, 1, 0,14, 0.00,60.00,Sunday
15,9973323.173376778
2,1, 1, 1, 0,15, 0.00,60.00,Sunday
62,1786811.399999996
1164,748545.8032961361
1237,0.0
1297,250737.62991934916
2,1, 1, 1, 0,15, 0.00,60.00,Sunday
15,10224060.803296126
2,1, 1, 1, 0,16, 0.00,60.00,Sunday
62,1786811.399999996
1164,968416.8224999296
1237,0.0
1297,470608.6491231426
2,1, 1, 1, 0,16, 0.00,60.00,Sunday
15,10443931.82249992
2,1, 1, 1, 0,17, 0.00,60.00,Sunday
62,1786811.399999996
1164,1082433.4798600024
1237,0.0
1297,584625.3064832154
2,1, 1, 1, 0,17, 0.00,60.00,Sunday
15,10557948.479859993
2,1, 1, 1, 0,18, 0.00,60.00,Sunday
62,1786811.399999996
1164,1615096.6891297388
1237,0.0
1297,700425.7959679386
2,1, 1, 1, 0,18, 0.00,60.00,Sunday
15,11090611.68912973
2,1, 1, 1, 0,19, 0.00,60.00,Sunday
62,1786811.399999996
1164,5585395.620973632
1237,1159304.8099018962
1297,252415.73472887417
2,1, 1, 1, 0,19, 0.00,60.00,Sunday
15,15060910.620973624
2,1, 1, 1, 0,20, 0.00,60.00,Sunday
62,1786811.399999996
1164,7166095.40128871
1237,1940810.020795035
1297,368065.4931997909
2,1, 1, 1, 0,20, 0.00,60.00,Sunday
15,16641610.401288694
2,1, 1, 1, 0,21, 0.00,60.00,Sunday
62,1786811.399999996
1164,9607264.237137172
1237,4039676.84699023
1297,710367.5028530604
2,1, 1, 1, 0,21, 0.00,60.00,Sunday
15,19082779.23713716
2,1, 1, 1, 0,22, 0.00,60.00,Sunday
62,1786811.399999996
1164,11037756.24650379
1237,5121315.273261303
1297,1059221.0859486058
2,1, 1, 1, 0,22, 0.00,60.00,Sunday
15,20513271.24650378
2,1, 1, 1, 0,23, 0.00,60.00,Sunday
62,1786811.399999996
1164,11641767.152767405
1237,5702063.395143509
1297,1082483.8703300143
2,1, 1, 1, 0,23, 0.00,60.00,Sunday
15,21117282.152767397
2,1, 1, 1, 0,24, 0.00,60.00,Sunday
62,1786811.399999996
1164,12064403.2590133
1237,6220900.474317897
1297,986282.8974015223
2,1, 1, 1, 0,24, 0.00,60.00,Sunday
15,21539918.25901329
2,2, 1, 2, 0, 1, 0.00,60.00,Monday
62,1786811.399999996
1164,39710989.1877772
1237,33845622.76956797
1297,1008146.5309153401
2,2, 1, 2, 0, 1, 0.00,60.00,Monday
15,51749405.387777194
2,2, 1, 2, 0, 2, 0.00,60.00,Monday
62,1786811.399999996
1164,31568444.10733706
1237,25687902.14374619
1297,1023322.0762969896
2,2, 1, 2, 0, 2, 0.00,60.00,Monday
15,43606860.30733705
2,2, 1, 2, 0, 3, 0.00,60.00,Monday
62,1786811.399999996
1164,32996364.052612256
1237,26836223.252179146
1297,1302920.91313923
2,2, 1, 2, 0, 3, 0.00,60.00,Monday
15,45034780.25261225
2,2, 1, 2, 0, 4, 0.00,60.00,Monday
62,1786811.399999996
1164,31090596.77672682
1237,24660703.29649971
1297,1572673.5929332273
2,2, 1, 2, 0, 4, 0.00,60.00,Monday
15,43129012.976726815
2,2, 1, 2, 0, 5, 0.00,60.00,Monday
62,1786811.399999996
1164,30332721.82591673
1237,23745459.351924725
1297,1730042.586698126
2,2, 1, 2, 0, 5, 0.00,60.00,Monday
15,42371138.025916725
2,2, 1, 2, 0, 6, 0.00,60.00,Monday
62,3573622.799999992
1164,28238058.686767645
1237,21384161.858179517
1297,1996676.9412942487
2,2, 1, 2, 0, 6, 0.00,60.00,Monday
15,42063286.28676765
2,2, 1, 2, 0, 7, 0.00,60.00,Monday
62,3573622.799999992
1164,62564733.73217937
1237,55288032.022005446
1297,2419481.8228800474
2,2, 1, 2, 0, 7, 0.00,60.00,Monday
15,76389961.33217935
2,2, 1, 2, 0, 8, 0.00,60.00,Monday
62,10720868.399999974
1164,43290817.59394283
1237,35718334.427299365
1297,2715263.2793495813
2,2, 1, 2, 0, 8, 0.00,60.00,Monday
15,64263290.7939428
2,2, 1, 2, 0, 9, 0.00,60.00,Monday
62,32162605.199999925
1164,4259090.322392898
1237,0.0
1297,2993279.091171117
2,2, 1, 2, 0, 9, 0.00,60.00,Monday
15,59487806.322392814
2,2, 1, 2, 0,10, 0.00,60.00,Monday
62,32162605.199999925
1164,3731547.906654001
1237,0.0
1297,3043220.638787223
2,2, 1, 2, 0,10, 0.00,60.00,Monday
15,58960263.906653926
2,2, 1, 2, 0,11, 0.00,60.00,Monday
62,32162605.199999925
1164,5924888.7631269945
1237,0.0
1297,3068648.024713892
2,2, 1, 2, 0,11, 0.00,60.00,Monday
15,61153604.76312692
2,2, 1, 2, 0,12, 0.00,60.00,Monday
62,32162605.199999925
1164,6988787.346885045
1237,0.0
1297,3145633.3224991336
2,2, 1, 2, 0,12, 0.00,60.00,Monday
15,62217503.34688496
2,2, 1, 2, 0,13, 0.00,60.00,Monday
62,32162605.199999925
1164,7419222.046996218
1237,0.0
1297,3081318.829778089
2,2, 1, 2, 0,13, 0.00,60.00,Monday
15,60085036.84699613
2,2, 1, 2, 0,14, 0.00,60.00,Monday
62,32162605.199999925
1164,6470540.1216462115
1237,0.0
1297,3961554.6510164067
2,2, 1, 2, 0,14, 0.00,60.00,Monday
15,61699256.12164613
2,2, 1, 2, 0,15, 0.00,60.00,Monday
62,32162605.199999925
1164,6649821.513049714
1237,0.0
1297,4128801.4370958973
2,2, 1, 2, 0,15, 0.00,60.00,Monday
15,61878537.51304963
2,2, 1, 2, 0,16, 0.00,60.00,Monday
62,32162605.199999925
1164,7417391.5413245335
1237,0.0
1297,2927730.2016954217
2,2, 1, 2, 0,16, 0.00,60.00,Monday
15,62646107.54132445
2,2, 1, 2, 0,17, 0.00,60.00,Monday
62,32162605.199999925
1164,6620126.877166906
1237,0.0
1297,1760421.8655220885
2,2, 1, 2, 0,17, 0.00,60.00,Monday
15,61848842.87716682
2,2, 1, 2, 0,18, 0.00,60.00,Monday
62,25015359.599999942
1164,2550269.6889782245
1237,26434.91559334181
1297,1175879.2588833836
2,2, 1, 2, 0,18, 0.00,60.00,Monday
15,48068838.88897815
2,2, 1, 2, 0,19, 0.00,60.00,Monday
62,17868113.99999996
1164,11208525.637855811
1237,5248183.581676786
1297,1889266.3572305804
2,2, 1, 2, 0,19, 0.00,60.00,Monday
15,44454046.83785574
2,2, 1, 2, 0,20, 0.00,60.00,Monday
62,17868113.99999996
1164,1243226.8496119443
1237,0.0
1297,745418.6762351575
2,2, 1, 2, 0,20, 0.00,60.00,Monday
15,34488748.04961189
2,2, 1, 2, 0,21, 0.00,60.00,Monday
62,10720868.399999974
1164,4168049.9616846163
1237,707445.3556576967
1297,0.0
2,2, 1, 2, 0,21, 0.00,60.00,Monday
15,27703424.361684583
2,2, 1, 2, 0,22, 0.00,60.00,Monday
62,10720868.399999974
1164,9218986.797739634
1237,4361766.91044575
1297,0.0
2,2, 1, 2, 0,22, 0.00,60.00,Monday
15,32754361.1977396
2,2, 1, 2, 0,23, 0.00,60.00,Monday
62,3573622.799999992
1164,21084962.203971725
1237,15643160.92228267
1297,584581.3943951736
2,2, 1, 2, 0,23, 0.00,60.00,Monday
15,34910189.803971715
2,2, 1, 2, 0,24, 0.00,60.00,Monday
62,1786811.399999996
1164,24583866.700075388
1237,18734696.307027675
1297,991950.5057538336
2,2, 1, 2, 0,24, 0.00,60.00,Monday
15,36622282.90007538
2,3, 1, 3, 0, 1, 0.00,60.00,Tuesday
62,1786811.399999996
1164,25853862.117282297
1237,20012427.017030947
1297,984215.2129574701
2,3, 1, 3, 0, 1, 0.00,60.00,Tuesday
15,37892278.3172823
2,3, 1, 3, 0, 2, 0.00,60.00,Tuesday
62,1786811.399999996
1164,26266654.401790723
1237,20568367.94411684
1297,841066.5703799999
2,3, 1, 3, 0, 2, 0.00,60.00,Tuesday
15,38305070.60179071
2,3, 1, 3, 0, 3, 0.00,60.00,Tuesday
62,1786811.399999996
1164,26708088.37232873
1237,21417210.188413553
1297,433658.29662129446
2,3, 1, 3, 0, 3, 0.00,60.00,Tuesday
15,38746504.57232871
2,3, 1, 3, 0, 4, 0.00,60.00,Tuesday
62,1786811.399999996
1164,26914666.082519587
1237,22057446.19522571
1297,0.0
2,3, 1, 3, 0, 4, 0.00,60.00,Tuesday
15,38953082.28251958
2,3, 1, 3, 0, 5, 0.00,60.00,Tuesday
62,1786811.399999996
1164,27840329.861295402
1237,22983109.974001527
1297,0.0
2,3, 1, 3, 0, 5, 0.00,60.00,Tuesday
15,39878746.0612954
2,3, 1, 3, 0, 6, 0.00,60.00,Tuesday
62,3573622.799999992
1164,26670214.197256934
1237,21812994.30996305
1297,0.0
2,3, 1, 3, 0, 6, 0.00,60.00,Tuesday
15,40495441.79725693
2,3, 1, 3, 0, 7, 0.00,60.00,Tuesday
62,3573622.799999992
1164,61075737.40532869
1237,56218517.51803481
1297,0.0
2,3, 1, 3, 0, 7, 0.00,60.00,Tuesday
15,74900965.00532869
2,3, 1, 3, 0, 8, 0.00,60.00,Tuesday
62,10720868.399999974
1164,42905234.555923715
1237,38048014.66862984
1297,0.0
2,3, 1, 3, 0, 8, 0.00,60.00,Tuesday
15,63877707.75592369
2,3, 1, 3, 0, 9, 0.00,60.00,Tuesday
62,32162605.199999925
1164,2521844.2748784395
1237,1009108.3855429315
1297,0.0
2,3, 1, 3, 0, 9, 0.00,60.00,Tuesday
15,57750560.27487835
2,3, 1, 3, 0,10, 0.00,60.00,Tuesday
62,32162605.199999925
1164,2069517.3392608722
1237,556781.4499253642
1297,0.0
2,3, 1, 3, 0,10, 0.00,60.00,Tuesday
15,57298233.33926079
2,3, 1, 3, 0,11, 0.00,60.00,Tuesday
62,32162605.199999925
1164,2293185.841990041
1237,399411.7636745511
1297,0.0
2,3, 1, 3, 0,11, 0.00,60.00,Tuesday
15,57521901.84198996
2,3, 1, 3, 0,12, 0.00,60.00,Tuesday
62,32162605.199999925
1164,2268100.873373291
1237,374326.79505780095
1297,0.0
2,3, 1, 3, 0,12, 0.00,60.00,Tuesday
15,57496816.87337321
2,3, 1, 3, 0,13, 0.00,60.00,Tuesday
62,32162605.199999925
1164,4526002.846095622
1237,1531544.0522709172
1297,0.0
2,3, 1, 3, 0,13, 0.00,60.00,Tuesday
15,57191817.64609554
2,3, 1, 3, 0,14, 0.00,60.00,Tuesday
62,32162605.199999925
1164,2524444.353070764
1237,630670.2747552737
1297,0.0
2,3, 1, 3, 0,14, 0.00,60.00,Tuesday
15,57753160.353070684
2,3, 1, 3, 0,15, 0.00,60.00,Tuesday
62,32162605.199999925
1164,2666093.300682451
1237,772319.2223669608
1297,0.0
2,3, 1, 3, 0,15, 0.00,60.00,Tuesday
15,57894809.300682366
2,3, 1, 3, 0,16, 0.00,60.00,Tuesday
62,32162605.199999925
1164,3181238.731140966
1237,1287464.6528254761
1297,0.0
2,3, 1, 3, 0,16, 0.00,60.00,Tuesday
15,58409954.73114088
2,3, 1, 3, 0,17, 0.00,60.00,Tuesday
62,32162605.199999925
1164,6724010.765856371
1237,1866790.8785624888
1297,0.0
2,3, 1, 3, 0,17, 0.00,60.00,Tuesday
15,61952726.76585629
2,3, 1, 3, 0,18, 0.00,60.00,Tuesday
62,25015359.599999942
1164,15744443.479153909
1237,11077742.686350014
1297,0.0
2,3, 1, 3, 0,18, 0.00,60.00,Tuesday
15,61263012.67915384
2,3, 1, 3, 0,19, 0.00,60.00,Tuesday
62,17868113.99999996
1164,33995376.431823574
1237,29138156.54452969
1297,0.0
2,3, 1, 3, 0,19, 0.00,60.00,Tuesday
15,67240897.63182352
2,3, 1, 3, 0,20, 0.00,60.00,Tuesday
62,17868113.99999996
1164,3551993.781262495
1237,1137681.637109506
1297,0.0
2,3, 1, 3, 0,20, 0.00,60.00,Tuesday
15,36797514.981262445
2,3, 1, 3, 0,21, 0.00,60.00,Tuesday
62,10720868.399999974
1164,18891798.414074548
1237,14034578.526780665
1297,0.0
2,3, 1, 3, 0,21, 0.00,60.00,Tuesday
15,42427172.81407452
2,3, 1, 3, 0,22, 0.00,60.00,Tuesday
62,10720868.399999974
1164,23102303.25020533
1237,18245083.36291145
1297,0.0
2,3, 1, 3, 0,22, 0.00,60.00,Tuesday
15,46637677.650205314
2,3, 1, 3, 0,23, 0.00,60.00,Tuesday
62,3573622.799999992
1164,36232713.87509557
1237,31375493.98780168
1297,0.0
2,3, 1, 3, 0,23, 0.00,60.00,Tuesday
15,50057941.47509555
2,3, 1, 3, 0,24, 0.00,60.00,Tuesday
62,1786811.399999996
1164,39388273.49820171
1237,34531053.61090783
1297,0.0
2,3, 1, 3, 0,24, 0.00,60.00,Tuesday
15,51426689.6982017
2,4, 1, 4, 0, 1, 0.00,60.00,Wednesday
62,1786811.399999996
1164,40886125.97292055
1237,36028906.08562667
1297,0.0
2,4, 1, 4, 0, 1, 0.00,60.00,Wednesday
15,52924542.17292054
2,4, 1, 4, 0, 2, 0.00,60.00,Wednesday
62,1786811.399999996
1164,41252089.31522122
1237,36394869.42792733
1297,0.0
2,4, 1, 4, 0, 2, 0.00,60.00,Wednesday
15,53290505.51522121
2,4, 1, 4, 0, 3, 0.00,60.00,Wednesday
62,1786811.399999996
1164,42206325.78855274
1237,37349105.901258856
1297,0.0
2,4, 1, 4, 0, 3, 0.00,60.00,Wednesday
15,54244741.98855273
2,4, 1, 4, 0, 4, 0.00,60.00,Wednesday
62,1786811.399999996
1164,43725193.928585544
1237,38867974.041291654
1297,0.0
2,4, 1, 4, 0, 4, 0.00,60.00,Wednesday
15,55763610.12858553
2,4, 1, 4, 0, 5, 0.00,60.00,Wednesday
62,1786811.399999996
1164,44968933.55579616
1237,40111713.66850228
1297,0.0
2,4, 1, 4, 0, 5, 0.00,60.00,Wednesday
15,57007349.75579615
2,4, 1, 4, 0, 6, 0.00,60.00,Wednesday
62,3573622.799999992
1164,44393211.97770362
1237,39535992.09040974
1297,0.0
2,4, 1, 4, 0, 6, 0.00,60.00,Wednesday
15,58218439.57770361
2,4, 1, 4, 0, 7, 0.00,60.00,Wednesday
62,3573622.799999992
1164,80842345.98679402
1237,75985126.09950013
1297,0.0
2,4, 1, 4, 0, 7, 0.00,60.00,Wednesday
15,94667573.586794
2,4, 1, 4, 0, 8, 0.00,60.00,Wednesday
62,10720868.399999974
1164,62140713.46884672
1237,57283493.58155284
1297,0.0
2,4, 1, 4, 0, 8, 0.00,60.00,Wednesday
15,83113186.6688467
2,4, 1, 4, 0, 9, 0.00,60.00,Wednesday
62,32162605.199999925
1164,18385475.881067198
1237,13528255.993773315
1297,0.0
2,4, 1, 4, 0, 9, 0.00,60.00,Wednesday
15,73614191.88106713
2,4, 1, 4, 0,10, 0.00,60.00,Wednesday
62,32162605.199999925
1164,12264232.799572093
1237,7407012.912278211
1297,0.0
2,4, 1, 4, 0,10, 0.00,60.00,Wednesday
15,67492948.799572
2,4, 1, 4, 0,11, 0.00,60.00,Wednesday
62,32162605.199999925
1164,8422298.637332955
1237,3565078.7500390722
1297,0.0
2,4, 1, 4, 0,11, 0.00,60.00,Wednesday
15,63651014.63733287
2,4, 1, 4, 0,12, 0.00,60.00,Wednesday
62,32162605.199999925
1164,7516551.468150665
1237,2659331.5808567824
1297,0.0
2,4, 1, 4, 0,12, 0.00,60.00,Wednesday
15,62745267.468150586
2,4, 1, 4, 0,13, 0.00,60.00,Wednesday
62,32162605.199999925
1164,9282295.406843714
1237,4425075.519549832
1297,0.0
2,4, 1, 4, 0,13, 0.00,60.00,Wednesday
15,61948110.20684364
2,4, 1, 4, 0,14, 0.00,60.00,Wednesday
62,32162605.199999925
1164,4676791.966724899
1237,1775768.4335261306
1297,0.0
2,4, 1, 4, 0,14, 0.00,60.00,Wednesday
15,59905507.96672482
2,4, 1, 4, 0,15, 0.00,60.00,Wednesday
62,32162605.199999925
1164,4780006.500853654
1237,1878982.9676548857
1297,0.0
2,4, 1, 4, 0,15, 0.00,60.00,Wednesday
15,60008722.500853576
2,4, 1, 4, 0,16, 0.00,60.00,Wednesday
62,32162605.199999925
1164,7500922.436807285
1237,2643702.549513402
1297,0.0
2,4, 1, 4, 0,16, 0.00,60.00,Wednesday
15,62729638.43680721
2,4, 1, 4, 0,17, 0.00,60.00,Wednesday
62,32162605.199999925
1164,10544632.829258474
1237,5687412.94196459
1297,0.0
2,4, 1, 4, 0,17, 0.00,60.00,Wednesday
15,65773348.82925838
2,4, 1, 4, 0,18, 0.00,60.00,Wednesday
62,25015359.599999942
1164,27356762.58751226
1237,22499542.700218376
1297,0.0
2,4, 1, 4, 0,18, 0.00,60.00,Wednesday
15,72875331.78751218
2,4, 1, 4, 0,19, 0.00,60.00,Wednesday
62,17868113.99999996
1164,46587423.877751075
1237,41730203.990457185
1297,0.0
2,4, 1, 4, 0,19, 0.00,60.00,Wednesday
15,79832945.07775101
2,4, 1, 4, 0,20, 0.00,60.00,Wednesday
62,17868113.99999996
1164,13352458.350590939
1237,9585091.391776329
1297,0.0
2,4, 1, 4, 0,20, 0.00,60.00,Wednesday
15,46597979.550590895
2,4, 1, 4, 0,21, 0.00,60.00,Wednesday
62,10720868.399999974
1164,32788199.018987857
1237,27930979.131693974
1297,0.0
2,4, 1, 4, 0,21, 0.00,60.00,Wednesday
15,56323573.418987826
2,4, 1, 4, 0,22, 0.00,60.00,Wednesday
62,10720868.399999974
1164,36413669.62609872
1237,31556449.73880484
1297,0.0
2,4, 1, 4, 0,22, 0.00,60.00,Wednesday
15,59949044.02609869
2,4, 1, 4, 0,23, 0.00,60.00,Wednesday
62,3573622.799999992
1164,49818904.57819891
1237,44961684.69090503
1297,0.0
2,4, 1, 4, 0,23, 0.00,60.00,Wednesday
15,63644132.178198904
2,4, 1, 4, 0,24, 0.00,60.00,Wednesday
62,1786811.399999996
1164,52368288.41882701
1237,47511068.53153313
1297,0.0
2,4, 1, 4, 0,24, 0.00,60.00,Wednesday
15,64406704.61882701
2,5, 1, 5, 0, 1, 0.00,60.00,Thursday
62,1786811.399999996
1164,53073060.65810109
1237,48215840.77080721
1297,0.0
2,5, 1, 5, 0, 1, 0.00,60.00,Thursday
15,65111476.85810108
2,5, 1, 5, 0, 2, 0.00,60.00,Thursday
62,1786811.399999996
1164,52654252.46308696
1237,47797032.57579307
1297,0.0
2,5, 1, 5, 0, 2, 0.00,60.00,Thursday
15,64692668.66308695
2,5, 1, 5, 0, 3, 0.00,60.00,Thursday
62,1786811.399999996
1164,52420983.64538027
1237,47563763.75808639
1297,0.0
2,5, 1, 5, 0, 3, 0.00,60.00,Thursday
15,64459399.84538026
2,5, 1, 5, 0, 4, 0.00,60.00,Thursday
62,1786811.399999996
1164,52282081.83019537
1237,47424861.94290148
1297,0.0
2,5, 1, 5, 0, 4, 0.00,60.00,Thursday
15,64320498.030195355
2,5, 1, 5, 0, 5, 0.00,60.00,Thursday
62,1786811.399999996
1164,52360999.67051239
1237,47503779.7832185
1297,0.0
2,5, 1, 5, 0, 5, 0.00,60.00,Thursday
15,64399415.87051238
2,5, 1, 5, 0, 6, 0.00,60.00,Thursday
62,3573622.799999992
1164,50409638.169881485
1237,45552418.2825876
1297,0.0
2,5, 1, 5, 0, 6, 0.00,60.00,Thursday
15,64234865.76988148
2,5, 1, 5, 0, 7, 0.00,60.00,Thursday
62,3573622.799999992
1164,86458338.33726653
1237,81601118.44997264
1297,0.0
2,5, 1, 5, 0, 7, 0.00,60.00,Thursday
15,100283565.93726653
2,5, 1, 5, 0, 8, 0.00,60.00,Thursday
62,10720868.399999974
1164,67290754.02147217
1237,62433534.134178296
1297,0.0
2,5, 1, 5, 0, 8, 0.00,60.00,Thursday
15,88263227.22147216
2,5, 1, 5, 0, 9, 0.00,60.00,Thursday
62,32162605.199999925
1164,19356628.603953563
1237,14499408.71665968
1297,0.0
2,5, 1, 5, 0, 9, 0.00,60.00,Thursday
15,74585344.60395348
2,5, 1, 5, 0,10, 0.00,60.00,Thursday
62,32162605.199999925
1164,10917606.692675827
1237,6441424.994361927
1297,0.0
2,5, 1, 5, 0,10, 0.00,60.00,Thursday
15,66146322.69267575
2,5, 1, 5, 0,11, 0.00,60.00,Thursday
62,32162605.199999925
1164,7754888.065440083
1237,2897668.1781462
1297,0.0
2,5, 1, 5, 0,11, 0.00,60.00,Thursday
15,62983604.06544
2,5, 1, 5, 0,12, 0.00,60.00,Thursday
62,32162605.199999925
1164,3186086.543390788
1237,1292312.4650752977
1297,0.0
2,5, 1, 5, 0,12, 0.00,60.00,Thursday
15,58414802.543390706
2,5, 1, 5, 0,13, 0.00,60.00,Thursday
62,32162605.199999925
1164,5582690.925050338
1237,725471.0377564554
1297,0.0
2,5, 1, 5, 0,13, 0.00,60.00,Thursday
15,58248505.725050256
2,5, 1, 5, 0,14, 0.00,60.00,Thursday
62,32162605.199999925
1164,4020487.0502232565
1237,0.0
1297,90132.81337884927
2,5, 1, 5, 0,14, 0.00,60.00,Thursday
15,59249203.05022318
2,5, 1, 5, 0,15, 0.00,60.00,Thursday
62,32162605.199999925
1164,3614019.3262482807
1237,0.0
1297,1488791.163955845
2,5, 1, 5, 0,15, 0.00,60.00,Thursday
15,58842735.32624819
2,5, 1, 5, 0,16, 0.00,60.00,Thursday
62,32162605.199999925
1164,4075908.140161247
1237,0.0
1297,2370190.3412892222
2,5, 1, 5, 0,16, 0.00,60.00,Thursday
15,59304624.14016116
2,5, 1, 5, 0,17, 0.00,60.00,Thursday
62,32162605.199999925
1164,4438437.996800881
1237,0.0
1297,25097.925382129342
2,5, 1, 5, 0,17, 0.00,60.00,Thursday
15,59667153.9968008
2,5, 1, 5, 0,18, 0.00,60.00,Thursday
62,25015359.599999942
1164,9646649.09374295
1237,5844272.082240522
1297,0.0
2,5, 1, 5, 0,18, 0.00,60.00,Thursday
15,55165218.29374287
2,5, 1, 5, 0,19, 0.00,60.00,Thursday
62,17868113.99999996
1164,34261477.53981277
1237,29404257.652518887
1297,0.0
2,5, 1, 5, 0,19, 0.00,60.00,Thursday
15,67506998.73981272
2,5, 1, 5, 0,20, 0.00,60.00,Thursday
62,17868113.99999996
1164,7981163.571566147
1237,4534939.032578169
1297,0.0
2,5, 1, 5, 0,20, 0.00,60.00,Thursday
15,41226684.77156611
2,5, 1, 5, 0,21, 0.00,60.00,Thursday
62,10720868.399999974
1164,26960035.527323317
1237,22102815.640029434
1297,0.0
2,5, 1, 5, 0,21, 0.00,60.00,Thursday
15,50495409.92732328
2,5, 1, 5, 0,22, 0.00,60.00,Thursday
62,10720868.399999974
1164,32227029.272400893
1237,27369809.38510701
1297,0.0
2,5, 1, 5, 0,22, 0.00,60.00,Thursday
15,55762403.67240086
2,5, 1, 5, 0,23, 0.00,60.00,Thursday
62,3573622.799999992
1164,46175228.78907416
1237,41318008.90178028
1297,0.0
2,5, 1, 5, 0,23, 0.00,60.00,Thursday
15,60000456.389074154
2,5, 1, 5, 0,24, 0.00,60.00,Thursday
62,1786811.399999996
1164,48721270.562733516
1237,43864050.67543964
1297,0.0
2,5, 1, 5, 0,24, 0.00,60.00,Thursday
15,60759686.762733504
2,6, 1, 6, 0, 1, 0.00,60.00,Friday
62,1786811.399999996
1164,49676828.78787303
1237,44819608.90057914
1297,0.0
2,6, 1, 6, 0, 1, 0.00,60.00,Friday
15,61715244.98787302
2,6, 1, 6, 0, 2, 0.00,60.00,Friday
62,1786811.399999996
1164,50586956.41423342
1237,45729736.52693953
1297,0.0
2,6, 1, 6, 0, 2, 0.00,60.00,Friday
15,62625372.61423341
2,6, 1, 6, 0, 3, 0.00,60.00,Friday
62,1786811.399999996
1164,51138125.03201272
1237,46280905.14471884
1297,0.0
2,6, 1, 6, 0, 3, 0.00,60.00,Friday
15,63176541.23201271
2,6, 1, 6, 0, 4, 0.00,60.00,Friday
62,1786811.399999996
1164,51860743.62502274
1237,47003523.73772886
1297,0.0
2,6, 1, 6, 0, 4, 0.00,60.00,Friday
15,63899159.82502273
2,6, 1, 6, 0, 5, 0.00,60.00,Friday
62,1786811.399999996
1164,52456613.24188231
1237,47599393.35458842
1297,0.0
2,6, 1, 6, 0, 5, 0.00,60.00,Friday
15,64495029.4418823
2,6, 1, 6, 0, 6, 0.00,60.00,Friday
62,3573622.799999992
1164,50667451.02506793
1237,45810231.13777406
1297,0.0
2,6, 1, 6, 0, 6, 0.00,60.00,Friday
15,64492678.62506793
2,6, 1, 6, 0, 7, 0.00,60.00,Friday
62,3573622.799999992
1164,87601443.49969454
1237,82744223.61240065
1297,0.0
2,6, 1, 6, 0, 7, 0.00,60.00,Friday
15,101426671.09969452
2,6, 1, 6, 0, 8, 0.00,60.00,Friday
62,10720868.399999974
1164,68583575.255944
1237,63726355.36865011
1297,0.0
2,6, 1, 6, 0, 8, 0.00,60.00,Friday
15,89556048.45594397
2,6, 1, 6, 0, 9, 0.00,60.00,Friday
62,32162605.199999925
1164,18131891.307907432
1237,13274671.42061355
1297,0.0
2,6, 1, 6, 0, 9, 0.00,60.00,Friday
15,73360607.30790736
2,6, 1, 6, 0,10, 0.00,60.00,Friday
62,32162605.199999925
1164,8912497.222244112
1237,4055277.334950229
1297,0.0
2,6, 1, 6, 0,10, 0.00,60.00,Friday
15,64141213.22224403
2,6, 1, 6, 0,11, 0.00,60.00,Friday
62,32162605.199999925
1164,4867712.795376787
1237,2175760.6235231203
1297,0.0
2,6, 1, 6, 0,11, 0.00,60.00,Friday
15,60096428.7953767
2,6, 1, 6, 0,12, 0.00,60.00,Friday
62,32162605.199999925
1164,2647631.7229687003
1237,753857.6446532104
1297,0.0
2,6, 1, 6, 0,12, 0.00,60.00,Friday
15,57876347.722968616
2,6, 1, 6, 0,13, 0.00,60.00,Friday
62,32162605.199999925
1164,3896682.2091103666
1237,513231.97043117986
1297,0.0
2,6, 1, 6, 0,13, 0.00,60.00,Friday
15,56562497.00911028
2,6, 1, 6, 0,14, 0.00,60.00,Friday
62,32162605.199999925
1164,3806258.4786846414
1237,0.0
1297,42526.01787901155
2,6, 1, 6, 0,14, 0.00,60.00,Friday
15,59034974.47868456
2,6, 1, 6, 0,15, 0.00,60.00,Friday
62,32162605.199999925
1164,3980597.138319063
1237,0.0
1297,440074.3396902926
2,6, 1, 6, 0,15, 0.00,60.00,Friday
15,59209313.138318986
2,6, 1, 6, 0,16, 0.00,60.00,Friday
62,32162605.199999925
1164,3232625.225013147
1237,0.0
1297,649109.642922214
2,6, 1, 6, 0,16, 0.00,60.00,Friday
15,58461341.22501306
2,6, 1, 6, 0,17, 0.00,60.00,Friday
62,32162605.199999925
1164,4857219.887293883
1237,0.0
1297,0.0
2,6, 1, 6, 0,17, 0.00,60.00,Friday
15,60085935.8872938
2,6, 1, 6, 0,18, 0.00,60.00,Friday
62,25015359.599999942
1164,8940172.535062851
1237,5137795.5235604225
1297,0.0
2,6, 1, 6, 0,18, 0.00,60.00,Friday
15,54458741.73506277
2,6, 1, 6, 0,19, 0.00,60.00,Friday
62,17868113.99999996
1164,32848383.47089898
1237,27991163.583605096
1297,0.0
2,6, 1, 6, 0,19, 0.00,60.00,Friday
15,66093904.67089893
2,6, 1, 6, 0,20, 0.00,60.00,Friday
62,17868113.99999996
1164,6634291.44715395
1237,3251573.272995971
1297,0.0
2,6, 1, 6, 0,20, 0.00,60.00,Friday
15,39879812.64715391
2,6, 1, 6, 0,21, 0.00,60.00,Friday
62,10720868.399999974
1164,24579528.738034636
1237,19722308.850740753
1297,0.0
2,6, 1, 6, 0,21, 0.00,60.00,Friday
15,48114903.138034604
2,6, 1, 6, 0,22, 0.00,60.00,Friday
62,10720868.399999974
1164,28953037.159565423
1237,24095817.272271536
1297,0.0
2,6, 1, 6, 0,22, 0.00,60.00,Friday
15,52488411.559565395
2,6, 1, 6, 0,23, 0.00,60.00,Friday
62,3573622.799999992
1164,42163382.09240804
1237,37306162.20511416
1297,0.0
2,6, 1, 6, 0,23, 0.00,60.00,Friday